ITEM: TIMESTEP
50000
ITEM: NUMBER OF SURFS
101
ITEM: BOX BOUNDS oo ao pp
-0.01 0.01
0 0.01
-0.5 0.5
ITEM: SURFS id f_surf[1] f_surf[2] f_surf[3] 
1 0 0 0 
13 0 0 0 
25 0 0 0 
37 0 0 0 
49 14075.6 11577.7 4.18026e-06 
61 1.22985e+06 1.23409e+06 0.000251374 
73 3.19121e+06 3.29991e+06 0.000532874 
85 3.58735e+06 3.65451e+06 0.000383943 
97 3.86493e+06 4.01292e+06 0.000101685 
2 0 0 0 
14 0 0 0 
26 0 0 0 
38 8085.18 7784.26 2.91991e-06 
50 83099.9 107242 1.97308e-05 
62 1.37819e+06 1.38242e+06 0.000257571 
74 2.32733e+06 2.35757e+06 0.00038099 
86 3.62915e+06 3.77693e+06 0.000373611 
98 4.54662e+06 4.73768e+06 8.19813e-05 
3 0 0 0 
15 0 0 0 
27 0 0 0 
39 0 0 0 
51 156478 152812 3.95326e-05 
63 1.10993e+06 1.14516e+06 0.000241496 
75 2.9221e+06 2.98093e+06 0.000455558 
87 3.46728e+06 3.59962e+06 0.000331669 
99 3.01279e+06 3.22936e+06 3.5228e-05 
4 0 0 0 
16 0 0 0 
28 0 0 0 
40 0 0 0 
52 467149 470834 9.71192e-05 
64 1.8573e+06 1.85523e+06 0.000352546 
76 2.88311e+06 3.01228e+06 0.000427248 
88 3.42731e+06 3.59672e+06 0.000302894 
100 2.66457e+06 2.86074e+06 1.03094e-05 
5 0 0 0 
17 0 0 0 
29 0 0 0 
41 14954.3 44189.7 2.33467e-06 
53 226041 225552 4.94926e-05 
65 1.95297e+06 1.93971e+06 0.00036631 
77 1.92363e+06 2.01187e+06 0.000297569 
89 2.91797e+06 3.04094e+06 0.000247277 
101 0 0 0 
6 0 0 0 
18 0 0 0 
30 0 0 0 
42 0 0 0 
54 442925 465614 9.85654e-05 
66 1.56146e+06 1.6007e+06 0.000300019 
78 2.83002e+06 2.99304e+06 0.000424339 
90 3.33233e+06 3.46084e+06 0.000245844 
7 0 0 0 
19 0 0 0 
31 0 0 0 
43 49991.1 50890.6 1.76855e-05 
55 423010 457557 8.68185e-05 
67 792570 833143 0.000162299 
79 3.26261e+06 3.44631e+06 0.000446339 
91 3.05452e+06 3.32455e+06 0.000217302 
8 0 0 0 
20 0 0 0 
32 0 0 0 
44 0 0 0 
56 754602 758927 0.000159252 
68 1.48758e+06 1.51554e+06 0.000294132 
80 3.64123e+06 3.76087e+06 0.00050376 
92 4.20288e+06 4.41362e+06 0.000268568 
9 0 0 0 
21 0 0 0 
33 0 0 0 
45 84114.1 96965.2 1.55459e-05 
57 603910 660451 0.000137663 
69 1.95156e+06 1.95129e+06 0.000347642 
81 2.68043e+06 2.74153e+06 0.000349929 
93 4.16488e+06 4.37223e+06 0.000224634 
10 0 0 0 
22 0 0 0 
34 0 0 0 
46 33944.3 33279 6.65391e-06 
58 801500 794122 0.000159141 
70 2.3613e+06 2.39211e+06 0.000433544 
82 2.88871e+06 2.97443e+06 0.000356477 
94 3.38463e+06 3.42901e+06 0.000160754 
11 0 0 0 
23 0 0 0 
35 0 0 0 
47 122187 142727 2.60982e-05 
59 933977 926926 0.000194235 
71 2.92191e+06 2.99116e+06 0.000495453 
83 3.463e+06 3.50504e+06 0.000402231 
95 3.75846e+06 3.88402e+06 0.000152038 
12 0 0 0 
24 0 0 0 
36 0 0 0 
48 124036 120246 2.567e-05 
60 840649 869204 0.000169577 
72 2.77482e+06 2.8992e+06 0.000471085 
84 3.35215e+06 3.48085e+06 0.000376177 
96 2.91597e+06 2.97605e+06 9.59472e-05 
