ITEM: TIMESTEP
50000
ITEM: NUMBER OF SURFS
25
ITEM: BOX BOUNDS oo ao pp
-0.01 0.01
0 0.01
-0.5 0.5
ITEM: SURFS id f_surf[1] f_surf[2] f_surf[3] 
1 0 0 0 
9 6921.32 7219.57 4.47116e-06 
17 1.78105e+06 1.82546e+06 0.00133329 
25 3.99772e+06 4.17248e+06 0.000235051 
2 0 0 0 
10 16202 16669.4 1.27334e-05 
18 2.12362e+06 2.19422e+06 0.00150872 
3 0 0 0 
11 41103.8 41102.1 3.32881e-05 
19 2.46195e+06 2.53285e+06 0.00158597 
4 0 0 0 
12 51439.6 56449.5 4.68033e-05 
20 2.87509e+06 2.97846e+06 0.00165735 
5 0 0 0 
13 139943 147744 0.000125912 
21 3.22893e+06 3.34991e+06 0.00157658 
6 0 0 0 
14 534602 554764 0.000440248 
22 3.45056e+06 3.56256e+06 0.00134775 
7 623.253 541.083 -2.80704e-07 
15 919287 938074 0.000742558 
23 3.58454e+06 3.73018e+06 0.0010386 
8 529.698 837.703 2.57873e-07 
16 1.27193e+06 1.2968e+06 0.00100455 
24 3.8389e+06 3.99622e+06 0.000667231 
