ITEM: TIMESTEP
47000
ITEM: NUMBER OF SURFS
101
ITEM: BOX BOUNDS oo ao pp
-0.01 0.01
0 0.01
-0.5 0.5
ITEM: SURFS id f_surf[1] f_surf[2] f_surf[3] 
1 0 0 0 
13 0 0 0 
25 0 0 0 
37 0 0 0 
49 158202 170898 3.32816e-05 
61 839490 877494 0.000176551 
73 1.78066e+06 1.85426e+06 0.000309055 
85 3.14856e+06 3.21335e+06 0.000341356 
97 3.45094e+06 3.60436e+06 8.87067e-05 
2 0 0 0 
14 0 0 0 
26 0 0 0 
38 0 0 0 
50 114501 112066 2.53357e-05 
62 1.02213e+06 1.04363e+06 0.000205863 
74 2.61666e+06 2.72252e+06 0.000420493 
86 3.33852e+06 3.42166e+06 0.000339357 
98 3.09542e+06 3.14131e+06 5.93659e-05 
3 0 0 0 
15 0 0 0 
27 0 0 0 
39 0 0 0 
51 128069 165190 3.32715e-05 
63 1.11989e+06 1.11254e+06 0.000210837 
75 2.91752e+06 3e+06 0.000448325 
87 3.16052e+06 3.36569e+06 0.000317438 
99 4.47809e+06 4.60686e+06 4.81697e-05 
4 0 0 0 
16 0 0 0 
28 346.408 -60.2199 3.93865e-07 
40 38486.5 38373.4 7.0239e-06 
52 253519 251691 5.51581e-05 
64 1.52806e+06 1.55731e+06 0.000307995 
76 2.90106e+06 2.97025e+06 0.000446828 
88 3.59559e+06 3.76562e+06 0.000310849 
100 3.67144e+06 3.79088e+06 1.31095e-05 
5 0 0 0 
17 0 0 0 
29 0 0 0 
41 24466.9 24907.8 6.25766e-06 
53 218636 222375 4.89226e-05 
65 1.81731e+06 1.84615e+06 0.000347766 
77 2.58308e+06 2.61375e+06 0.000384968 
89 2.8173e+06 2.96444e+06 0.000237195 
101 0 0 0 
6 0 0 0 
18 0 0 0 
30 0 0 0 
42 0 0 0 
54 340612 375541 7.59001e-05 
66 870357 878277 0.000161091 
78 2.62435e+06 2.6757e+06 0.000411988 
90 3.51332e+06 3.63664e+06 0.000261217 
7 0 0 0 
19 0 0 0 
31 0 0 0 
43 42155.2 38576.6 1.08353e-05 
55 443960 462760 9.6726e-05 
67 2.16664e+06 2.21425e+06 0.000410242 
79 2.28951e+06 2.28495e+06 0.000320572 
91 4.19428e+06 4.32364e+06 0.000288988 
8 0 0 0 
20 0 0 0 
32 0 0 0 
44 14986.4 19070.7 2.54357e-06 
56 590128 601201 0.00010896 
68 1.44956e+06 1.46394e+06 0.000277923 
80 3.245e+06 3.34046e+06 0.000431866 
92 4.00181e+06 4.11436e+06 0.000244831 
9 0 0 0 
21 0 0 0 
33 0 0 0 
45 76401.8 76224.6 1.12395e-05 
57 542907 559667 0.000111392 
69 2.36812e+06 2.43248e+06 0.000422607 
81 4.12315e+06 4.21687e+06 0.000509969 
93 3.51007e+06 3.60762e+06 0.000192611 
10 0 0 0 
22 0 0 0 
34 0 0 0 
46 39755.1 36651 1.13538e-05 
58 921792 974534 0.000191976 
70 2.05907e+06 2.13975e+06 0.000358301 
82 3.49315e+06 3.7008e+06 0.000433475 
94 3.69783e+06 3.92661e+06 0.000170421 
11 0 0 0 
23 0 0 0 
35 38660 38295.7 6.01638e-06 
47 11626.4 15974.3 7.06135e-06 
59 1.07493e+06 1.09894e+06 0.0002208 
71 2.6402e+06 2.793e+06 0.000475089 
83 3.49134e+06 3.58664e+06 0.000419678 
95 3.84835e+06 4.00112e+06 0.000155823 
12 0 0 0 
24 0 0 0 
36 0 0 0 
48 72535.3 73240.3 2.18978e-05 
60 889811 923843 0.000181925 
72 1.75024e+06 1.78783e+06 0.000308882 
84 3.37558e+06 3.48366e+06 0.000380176 
96 3.64082e+06 3.74132e+06 0.000119771 
