ITEM: TIMESTEP
50000
ITEM: NUMBER OF SURFS
25
ITEM: BOX BOUNDS oo ao pp
-0.01 0.01
0 0.01
-0.5 0.5
ITEM: SURFS id f_surf[1] f_surf[2] f_surf[3] 
1 0 0 0 
2 0 0 0 
3 0 0 0 
4 0 0 0 
5 0 0 0 
6 0 0 0 
7 715.353 768.903 1.10297e-07 
8 1618.58 1513.98 1.36784e-06 
9 1983.33 1888.07 1.67203e-06 
10 11418.3 11891.8 1.02057e-05 
11 26386 26621 2.04447e-05 
12 52268.5 55809.9 5.00738e-05 
13 125214 131373 0.000117616 
14 487692 498798 0.000399474 
15 879625 906560 0.000720381 
16 1.28354e+06 1.32343e+06 0.00101727 
17 1.71213e+06 1.76118e+06 0.00129561 
18 2.22215e+06 2.27314e+06 0.00157156 
19 2.59005e+06 2.6783e+06 0.00167673 
20 2.87273e+06 2.9672e+06 0.00165552 
21 3.29176e+06 3.39893e+06 0.00160803 
22 3.3799e+06 3.52034e+06 0.0013383 
23 3.76699e+06 3.89246e+06 0.00107414 
24 3.93228e+06 4.09082e+06 0.000685873 
25 4.02387e+06 4.1818e+06 0.000236753 
