ITEM: TIMESTEP
5000
ITEM: NUMBER OF SURFS
1001
ITEM: BOX BOUNDS oo ao pp
-0.01 0.01
0 0.01
-0.5 0.5
ITEM: SURFS id f_surf[1] f_surf[2] f_surf[3] 
1 0 0 0 
13 0 0 0 
25 0 0 0 
37 0 0 0 
49 0 0 0 
61 0 0 0 
73 0 0 0 
85 0 0 0 
97 0 0 0 
109 0 0 0 
121 0 0 0 
133 0 0 0 
145 0 0 0 
157 0 0 0 
169 0 0 0 
181 0 0 0 
193 0 0 0 
205 0 0 0 
217 0 0 0 
229 0 0 0 
241 0 0 0 
253 0 0 0 
265 0 0 0 
277 0 0 0 
289 0 0 0 
301 0 0 0 
313 0 0 0 
325 0 0 0 
337 0 0 0 
349 0 0 0 
361 0 0 0 
373 0 0 0 
385 0 0 0 
397 0 0 0 
409 0 0 0 
421 0 0 0 
433 0 0 0 
445 587974 565145 7.27246e-06 
457 0 0 0 
469 0 0 0 
481 0 0 0 
493 0 0 0 
505 765486 824802 2.06432e-05 
517 1.7537e+06 1.71104e+06 3.49052e-05 
529 0 0 0 
541 0 0 0 
553 0 0 0 
565 0 0 0 
577 80739.9 223395 7.7343e-06 
589 1.86649e+06 1.84205e+06 3.62148e-05 
601 505136 905939 1.51888e-05 
613 1.31048e+06 1.31032e+06 3.05238e-05 
625 1.31535e+06 1.31114e+06 2.79107e-05 
637 299789 669420 1.10116e-05 
649 0 0 0 
661 0 0 0 
673 3.4799e+06 3.43856e+06 6.17572e-05 
685 1.64936e+06 1.63246e+06 2.72452e-05 
697 2.14093e+06 2.11899e+06 3.74795e-05 
709 5.42527e+06 5.40499e+06 8.76431e-05 
721 1.41337e+06 1.40904e+06 2.49111e-05 
733 713637 676227 1.13104e-05 
745 22724.4 22632.7 1.95135e-06 
757 2.79174e+06 3.02127e+06 4.47629e-05 
769 1.48485e+06 1.48284e+06 1.9561e-05 
781 3.65911e+06 3.61616e+06 4.96367e-05 
793 4.57334e+06 4.82604e+06 6.77109e-05 
805 2.5936e+06 2.94692e+06 3.64218e-05 
817 2.59053e+06 3.14339e+06 3.19877e-05 
829 3.18073e+06 3.12538e+06 3.93955e-05 
841 3.80015e+06 3.81292e+06 4.35912e-05 
853 4.93234e+06 4.92129e+06 4.64602e-05 
865 3.58966e+06 4.1321e+06 3.13241e-05 
877 3.67886e+06 4.34713e+06 3.60125e-05 
889 2.18692e+06 2.38452e+06 1.98119e-05 
901 3.95183e+06 4.25361e+06 3.1471e-05 
913 7.14124e+06 7.11886e+06 4.7918e-05 
925 436627 429918 1.52827e-06 
937 1.26462e+06 1.27104e+06 5.11013e-06 
949 2.60729e+06 2.6103e+06 8.47748e-06 
961 2.39377e+06 3.06496e+06 8.2041e-06 
973 6.44686e+06 7.3072e+06 1.34002e-05 
985 3.92257e+06 3.88746e+06 3.97864e-06 
997 9.6536e+06 9.92872e+06 2.62552e-06 
2 0 0 0 
14 0 0 0 
26 0 0 0 
38 0 0 0 
50 0 0 0 
62 0 0 0 
74 0 0 0 
86 0 0 0 
98 0 0 0 
110 0 0 0 
122 0 0 0 
134 0 0 0 
146 0 0 0 
158 0 0 0 
170 0 0 0 
182 0 0 0 
194 0 0 0 
206 0 0 0 
218 0 0 0 
230 0 0 0 
242 0 0 0 
254 0 0 0 
266 0 0 0 
278 0 0 0 
290 0 0 0 
302 0 0 0 
314 0 0 0 
326 0 0 0 
338 0 0 0 
350 0 0 0 
362 0 0 0 
374 0 0 0 
386 0 0 0 
398 0 0 0 
410 0 0 0 
422 0 0 0 
434 0 0 0 
446 0 0 0 
458 0 0 0 
470 0 0 0 
482 0 0 0 
494 0 0 0 
506 0 0 0 
518 0 0 0 
530 663025 633210 2.04885e-05 
542 1.73478e+06 2.15415e+06 3.92456e-05 
554 1.63857e+06 1.63271e+06 3.35539e-05 
566 0 0 0 
578 0 0 0 
590 0 0 0 
602 4.99834e+06 4.94779e+06 9.69814e-05 
614 0 0 0 
626 -5955.22 -11062.6 8.20592e-06 
638 1.36711e+06 1.96231e+06 2.04488e-05 
650 0 0 0 
662 756195 750740 1.16868e-05 
674 1.17831e+06 1.17259e+06 1.83294e-05 
686 3.87333e+06 3.98126e+06 6.61046e-05 
698 747965 1.40549e+06 1.60806e-05 
710 3.95643e+06 4.52693e+06 6.58673e-05 
722 1.15799e+06 1.15596e+06 1.88466e-05 
734 5.45066e+06 5.66871e+06 9.4888e-05 
746 7.53458e+06 7.85098e+06 0.000108081 
758 3.57108e+06 3.94576e+06 5.51122e-05 
770 1.43892e+06 1.43878e+06 1.73231e-05 
782 3.1181e+06 3.10662e+06 4.17967e-05 
794 5.19273e+06 5.26552e+06 6.19218e-05 
806 2.74621e+06 2.70858e+06 3.40828e-05 
818 5.90608e+06 6.58872e+06 6.36803e-05 
830 1.16657e+06 1.31479e+06 2.14606e-05 
842 2.00842e+06 2.08597e+06 2.03948e-05 
854 5.28966e+06 5.22262e+06 4.81585e-05 
866 1.31488e+07 1.30505e+07 0.000118013 
878 4.35063e+06 4.32913e+06 3.95723e-05 
890 2.70523e+06 2.68287e+06 1.98648e-05 
902 4.70962e+06 4.66745e+06 3.0725e-05 
914 4.20236e+06 4.16775e+06 2.23438e-05 
926 4.635e+06 4.66247e+06 2.46669e-05 
938 751086 917128 5.33484e-06 
950 2.35458e+06 2.29421e+06 9.88512e-06 
962 9.2467e+06 9.22219e+06 2.46628e-05 
974 1.47915e+06 1.50324e+06 3.65509e-06 
986 378792 1.31746e+06 6.41884e-07 
998 0 0 0 
3 0 0 0 
15 0 0 0 
27 0 0 0 
39 0 0 0 
51 0 0 0 
63 0 0 0 
75 0 0 0 
87 0 0 0 
99 0 0 0 
111 0 0 0 
123 0 0 0 
135 0 0 0 
147 0 0 0 
159 0 0 0 
171 0 0 0 
183 0 0 0 
195 0 0 0 
207 0 0 0 
219 0 0 0 
231 0 0 0 
243 0 0 0 
255 0 0 0 
267 0 0 0 
279 0 0 0 
291 0 0 0 
303 0 0 0 
315 0 0 0 
327 0 0 0 
339 0 0 0 
351 0 0 0 
363 0 0 0 
375 0 0 0 
387 0 0 0 
399 0 0 0 
411 0 0 0 
423 0 0 0 
435 0 0 0 
447 0 0 0 
459 0 0 0 
471 0 0 0 
483 0 0 0 
495 0 0 0 
507 0 0 0 
519 0 0 0 
531 0 0 0 
543 920438 930058 1.32277e-05 
555 0 0 0 
567 413170 864317 2.10395e-05 
579 0 0 0 
591 0 0 0 
603 516012 506141 1.04915e-05 
615 1.33656e+06 1.30914e+06 2.50566e-05 
627 2.56757e+06 2.96759e+06 5.19985e-05 
639 2.64775e+06 2.63538e+06 4.83706e-05 
651 1.32812e+06 1.29658e+06 2.26039e-05 
663 0 0 0 
675 1.32257e+06 1.32668e+06 2.26001e-05 
687 1.35204e+06 1.35023e+06 2.62729e-05 
699 290605 373484 9.25984e-06 
711 3.50748e+06 3.92294e+06 5.97998e-05 
723 4.22077e+06 4.22284e+06 6.50784e-05 
735 3.86939e+06 3.8383e+06 5.60704e-05 
747 2.38545e+06 2.89365e+06 4.60041e-05 
759 9553.12 4486.75 3.07819e-06 
771 4.26261e+06 4.5526e+06 6.57137e-05 
783 2.75697e+06 2.73304e+06 3.30039e-05 
795 2.40292e+06 2.37297e+06 2.85359e-05 
807 938353 980281 1.61081e-05 
819 1.41896e+06 1.40626e+06 1.46475e-05 
831 4.51816e+06 4.49154e+06 5.00632e-05 
843 1.2689e+06 1.53572e+06 1.37868e-05 
855 0 0 0 
867 6.85122e+06 6.86813e+06 5.83792e-05 
879 4.13236e+06 4.34173e+06 3.69039e-05 
891 2.79188e+06 3.17277e+06 2.59734e-05 
903 6.06276e+06 7.26526e+06 4.07553e-05 
915 3.34203e+06 3.41545e+06 1.85085e-05 
927 2.39335e+06 2.55999e+06 1.4225e-05 
939 1.50079e+07 1.49188e+07 5.88803e-05 
951 4.62955e+06 4.94449e+06 1.87773e-05 
963 6.01442e+06 6.1356e+06 1.78343e-05 
975 1.6154e+06 1.65356e+06 3.26375e-06 
987 1.32108e+06 1.33123e+06 1.59073e-06 
999 3.70335e+06 3.55802e+06 4.6484e-07 
4 0 0 0 
16 0 0 0 
28 0 0 0 
40 0 0 0 
52 0 0 0 
64 0 0 0 
76 0 0 0 
88 0 0 0 
100 0 0 0 
112 0 0 0 
124 0 0 0 
136 0 0 0 
148 0 0 0 
160 0 0 0 
172 0 0 0 
184 0 0 0 
196 0 0 0 
208 0 0 0 
220 0 0 0 
232 0 0 0 
244 0 0 0 
256 0 0 0 
268 0 0 0 
280 0 0 0 
292 0 0 0 
304 0 0 0 
316 0 0 0 
328 0 0 0 
340 0 0 0 
352 0 0 0 
364 1.53088e+06 1.74781e+06 3.25191e-05 
376 0 0 0 
388 0 0 0 
400 0 0 0 
412 0 0 0 
424 0 0 0 
436 0 0 0 
448 0 0 0 
460 0 0 0 
472 0 0 0 
484 0 0 0 
496 0 0 0 
508 693990 1.02053e+06 1.88377e-05 
520 0 0 0 
532 577004 1.01691e+06 1.43104e-05 
544 0 0 0 
556 684989 665070 1.01953e-05 
568 286317 275582 1.18853e-05 
580 164230 817961 8.65136e-06 
592 860349 857128 1.76959e-05 
604 448863 450123 1.34942e-05 
616 2.48283e+06 2.4088e+06 4.01714e-05 
628 906877 1.2229e+06 1.69842e-05 
640 4.0613e+06 4.03764e+06 7.95829e-05 
652 3.95475e+06 3.90063e+06 7.90507e-05 
664 1.38228e+06 1.38137e+06 2.34011e-05 
676 1.15631e+06 1.13196e+06 2.39554e-05 
688 2.91958e+06 3.60967e+06 5.95738e-05 
700 -9211.27 -9825.6 2.39121e-06 
712 2.34991e+06 2.33069e+06 4.00246e-05 
724 2.23118e+06 2.24665e+06 3.78948e-05 
736 1.17783e+06 1.17722e+06 2.40321e-05 
748 5.58662e+06 5.91895e+06 8.13306e-05 
760 637824 659166 1.61341e-05 
772 3.90536e+06 3.89537e+06 5.59974e-05 
784 1.02267e+06 1.03308e+06 1.12046e-05 
796 2.57519e+06 2.54646e+06 3.40473e-05 
808 3.9875e+06 3.97705e+06 4.99477e-05 
820 1.9602e+06 1.89286e+06 2.4371e-05 
832 3.91494e+06 3.82906e+06 5.12249e-05 
844 2.48106e+06 2.47837e+06 3.47539e-05 
856 1.09028e+06 1.05345e+06 1.11238e-05 
868 1.19949e+06 1.23625e+06 1.18059e-05 
880 2.74926e+06 2.66484e+06 1.96015e-05 
892 3.35522e+06 3.93234e+06 2.47944e-05 
904 4.15311e+06 4.13246e+06 2.72462e-05 
916 4.58282e+06 4.88075e+06 2.66925e-05 
928 4.825e+06 4.7812e+06 2.27132e-05 
940 6.70081e+06 6.63198e+06 2.8918e-05 
952 3.26898e+06 3.26026e+06 1.06367e-05 
964 5.70196e+06 5.58286e+06 1.49415e-05 
976 6.75127e+06 6.63904e+06 1.11152e-05 
988 1.72304e+07 1.71946e+07 1.43337e-05 
1000 0 0 0 
5 0 0 0 
17 0 0 0 
29 0 0 0 
41 0 0 0 
53 0 0 0 
65 0 0 0 
77 0 0 0 
89 0 0 0 
101 0 0 0 
113 0 0 0 
125 0 0 0 
137 0 0 0 
149 0 0 0 
161 0 0 0 
173 0 0 0 
185 0 0 0 
197 0 0 0 
209 0 0 0 
221 0 0 0 
233 0 0 0 
245 0 0 0 
257 0 0 0 
269 0 0 0 
281 0 0 0 
293 0 0 0 
305 0 0 0 
317 0 0 0 
329 0 0 0 
341 0 0 0 
353 -53633.3 4118.91 -1.37072e-06 
365 0 0 0 
377 0 0 0 
389 0 0 0 
401 0 0 0 
413 0 0 0 
425 0 0 0 
437 372121 373318 8.84821e-06 
449 0 0 0 
461 14690.2 -8657.87 1.36168e-06 
473 0 0 0 
485 0 0 0 
497 0 0 0 
509 0 0 0 
521 0 0 0 
533 1.91382e+06 1.90238e+06 3.63358e-05 
545 0 0 0 
557 0 0 0 
569 0 0 0 
581 1.54576e+06 1.45921e+06 3.34958e-05 
593 1.76414e+06 1.74627e+06 3.42519e-05 
605 19610 2305.76 8.40324e-06 
617 1.90677e+06 2.1371e+06 3.54489e-05 
629 887320 888517 1.8105e-05 
641 2.62835e+06 2.61134e+06 4.54689e-05 
653 1.81977e+06 1.76925e+06 3.22095e-05 
665 1.2797e+06 1.27796e+06 2.06913e-05 
677 0 0 0 
689 1.15543e+06 1.12396e+06 1.95849e-05 
701 2.80919e+06 2.78919e+06 5.198e-05 
713 40791 461735 4.385e-06 
725 1.33785e+06 1.34788e+06 2.09466e-05 
737 3.34767e+06 3.30749e+06 5.91152e-05 
749 2.39076e+06 2.37364e+06 4.08554e-05 
761 5.62792e+06 5.67057e+06 7.601e-05 
773 4.7058e+06 5.1756e+06 6.60867e-05 
785 2.75083e+06 2.99215e+06 3.94522e-05 
797 1.84558e+06 1.86711e+06 2.24541e-05 
809 2.79805e+06 2.76925e+06 3.46256e-05 
821 2.34911e+06 2.32074e+06 2.56223e-05 
833 3.54903e+06 3.66224e+06 4.56651e-05 
845 5.32577e+06 5.50868e+06 4.87832e-05 
857 1.79188e+06 1.72165e+06 2.13355e-05 
869 4.29073e+06 5.1579e+06 4.17114e-05 
881 980677 1.47344e+06 1.2596e-05 
893 3.86007e+06 3.77729e+06 2.79757e-05 
905 467239 1.03091e+06 5.5604e-06 
917 3.77022e+06 3.68481e+06 2.23313e-05 
929 3.5003e+06 3.56894e+06 1.93452e-05 
941 4.68628e+06 5.51895e+06 2.11634e-05 
953 7.47044e+06 7.31599e+06 2.60023e-05 
965 3.44632e+06 3.40169e+06 9.63336e-06 
977 2.05485e+06 2.27785e+06 5.68612e-06 
989 2.65218e+06 2.64364e+06 1.73485e-06 
1001 0 0 0 
6 0 0 0 
18 0 0 0 
30 0 0 0 
42 0 0 0 
54 0 0 0 
66 0 0 0 
78 0 0 0 
90 0 0 0 
102 0 0 0 
114 0 0 0 
126 0 0 0 
138 0 0 0 
150 0 0 0 
162 0 0 0 
174 0 0 0 
186 0 0 0 
198 0 0 0 
210 0 0 0 
222 0 0 0 
234 0 0 0 
246 0 0 0 
258 0 0 0 
270 0 0 0 
282 0 0 0 
294 0 0 0 
306 0 0 0 
318 0 0 0 
330 0 0 0 
342 0 0 0 
354 0 0 0 
366 0 0 0 
378 0 0 0 
390 0 0 0 
402 0 0 0 
414 0 0 0 
426 0 0 0 
438 0 0 0 
450 0 0 0 
462 0 0 0 
474 0 0 0 
486 0 0 0 
498 886929 888042 1.8284e-05 
510 0 0 0 
522 2.00265e+06 2.21298e+06 4.42606e-05 
534 0 0 0 
546 1.0927e+06 1.06108e+06 2.33106e-05 
558 973039 959452 1.97444e-05 
570 0 0 0 
582 1.91752e+06 2.18583e+06 3.89828e-05 
594 -27302.9 304427 6.86121e-06 
606 0 0 0 
618 1.21985e+06 1.25161e+06 2.66493e-05 
630 1.282e+06 1.30711e+06 1.96224e-05 
642 236713 840631 1.09625e-05 
654 3.746e+06 3.95377e+06 7.19009e-05 
666 4.42114e+06 4.41593e+06 7.442e-05 
678 1.081e+06 1.07577e+06 1.85119e-05 
690 769761 758288 1.45409e-05 
702 2.12365e+06 2.0674e+06 4.40052e-05 
714 4.0328e+06 3.9856e+06 5.9771e-05 
726 3.31383e+06 3.43311e+06 5.73842e-05 
738 4.40462e+06 4.65449e+06 7.89666e-05 
750 5.02482e+06 5.23168e+06 7.48898e-05 
762 0 0 0 
774 2.4242e+06 2.42628e+06 3.11651e-05 
786 4.34821e+06 4.16355e+06 5.37558e-05 
798 1.0102e+06 950050 1.92268e-05 
810 4.13536e+06 4.11542e+06 4.96653e-05 
822 2.69555e+06 2.76468e+06 3.21617e-05 
834 3.88124e+06 3.81628e+06 4.03001e-05 
846 534688 529181 8.3698e-06 
858 3.81431e+06 4.30866e+06 3.79866e-05 
870 4.25812e+06 4.72117e+06 3.99592e-05 
882 1.20819e+06 1.13494e+06 1.16958e-05 
894 7.01942e+06 6.91848e+06 4.97476e-05 
906 1.386e+06 1.56007e+06 8.529e-06 
918 6.94436e+06 7.13992e+06 4.52497e-05 
930 6.18246e+06 6.12657e+06 2.97654e-05 
942 4.18192e+06 4.41258e+06 1.67822e-05 
954 3.24025e+06 3.25799e+06 1.01936e-05 
966 657635 1.41601e+06 3.52395e-06 
978 424201 572708 1.02122e-06 
990 5.11874e+06 5.25305e+06 4.12175e-06 
7 0 0 0 
19 0 0 0 
31 0 0 0 
43 0 0 0 
55 0 0 0 
67 0 0 0 
79 0 0 0 
91 0 0 0 
103 0 0 0 
115 0 0 0 
127 0 0 0 
139 0 0 0 
151 0 0 0 
163 0 0 0 
175 0 0 0 
187 0 0 0 
199 0 0 0 
211 0 0 0 
223 0 0 0 
235 0 0 0 
247 0 0 0 
259 0 0 0 
271 0 0 0 
283 0 0 0 
295 0 0 0 
307 0 0 0 
319 0 0 0 
331 0 0 0 
343 0 0 0 
355 0 0 0 
367 0 0 0 
379 0 0 0 
391 0 0 0 
403 0 0 0 
415 0 0 0 
427 0 0 0 
439 0 0 0 
451 0 0 0 
463 0 0 0 
475 183308 477716 3.46701e-07 
487 0 0 0 
499 0 0 0 
511 0 0 0 
523 1.4817e+06 1.46932e+06 2.58948e-05 
535 1.1664e+06 1.1655e+06 2.03314e-05 
547 679526 679909 1.71915e-05 
559 1.11986e+06 1.08602e+06 2.63823e-05 
571 0 0 0 
583 1.11104e+06 1.11667e+06 2.44434e-05 
595 236519 407661 8.18761e-06 
607 2.22011e+06 2.17487e+06 4.78371e-05 
619 3.68015e+06 3.71272e+06 6.92996e-05 
631 1.2567e+06 1.25194e+06 2.71522e-05 
643 1.21486e+06 1.27676e+06 2.3441e-05 
655 1.40362e+06 1.36695e+06 2.52315e-05 
667 818452 831492 1.42229e-05 
679 2.33589e+06 2.31926e+06 3.95216e-05 
691 2.04469e+06 2.09862e+06 3.19691e-05 
703 1.30597e+06 1.32149e+06 3.52601e-05 
715 1.7054e+06 1.64648e+06 2.70279e-05 
727 4.01583e+06 4.43245e+06 6.70767e-05 
739 3.42695e+06 3.39626e+06 5.29667e-05 
751 3.94065e+06 3.92771e+06 5.75079e-05 
763 8.36013e+06 8.33593e+06 0.000116089 
775 6.41171e+06 6.50164e+06 9.37229e-05 
787 2.7352e+06 2.75401e+06 3.9148e-05 
799 2.37791e+06 2.94785e+06 3.29051e-05 
811 5.25964e+06 5.73146e+06 6.49278e-05 
823 1.97732e+06 2.41582e+06 2.83257e-05 
835 2.44712e+06 2.38275e+06 2.76732e-05 
847 1.34857e+06 1.36277e+06 1.45985e-05 
859 4.19426e+06 4.13555e+06 3.91416e-05 
871 985660 1.37103e+06 7.41294e-06 
883 6.84055e+06 6.88478e+06 5.30137e-05 
895 2.45017e+06 3.98911e+06 2.36028e-05 
907 4.26882e+06 4.22822e+06 2.82591e-05 
919 2.84314e+06 2.84898e+06 1.58776e-05 
931 1.15123e+06 1.14583e+06 5.95127e-06 
943 3.21515e+06 3.2191e+06 1.49061e-05 
955 5.45353e+06 5.49498e+06 1.74796e-05 
967 3.10433e+06 3.05003e+06 8.84598e-06 
979 9.70456e+06 9.6251e+06 1.45965e-05 
991 2.83171e+06 2.85592e+06 2.10326e-06 
8 0 0 0 
20 0 0 0 
32 0 0 0 
44 0 0 0 
56 0 0 0 
68 0 0 0 
80 0 0 0 
92 0 0 0 
104 0 0 0 
116 0 0 0 
128 0 0 0 
140 0 0 0 
152 0 0 0 
164 0 0 0 
176 0 0 0 
188 0 0 0 
200 0 0 0 
212 0 0 0 
224 0 0 0 
236 0 0 0 
248 0 0 0 
260 0 0 0 
272 0 0 0 
284 0 0 0 
296 0 0 0 
308 0 0 0 
320 0 0 0 
332 0 0 0 
344 0 0 0 
356 0 0 0 
368 0 0 0 
380 0 0 0 
392 0 0 0 
404 0 0 0 
416 0 0 0 
428 0 0 0 
440 0 0 0 
452 0 0 0 
464 0 0 0 
476 0 0 0 
488 0 0 0 
500 558903 520100 1.25622e-05 
512 0 0 0 
524 0 0 0 
536 0 0 0 
548 2.04647e+06 2.04475e+06 4.31609e-05 
560 1.24992e+06 1.24248e+06 2.21008e-05 
572 2.10563e+06 2.10274e+06 4.39168e-05 
584 0 0 0 
596 0 0 0 
608 385208 436618 7.04712e-06 
620 0 0 0 
632 1.1571e+06 1.13363e+06 2.86035e-05 
644 2.03134e+06 1.97391e+06 3.34995e-05 
656 1.089e+06 1.07459e+06 1.92857e-05 
668 1.8875e+06 1.82748e+06 3.03701e-05 
680 3.81671e+06 3.77936e+06 6.24843e-05 
692 3.81868e+06 3.78234e+06 6.4881e-05 
704 4.2183e+06 4.17128e+06 7.36479e-05 
716 2.63604e+06 2.60469e+06 5.26825e-05 
728 5.31508e+06 5.64772e+06 9.0092e-05 
740 7.79136e+06 7.71946e+06 0.000116302 
752 6.85879e+06 6.78918e+06 0.0001013 
764 2.08859e+06 2.61531e+06 3.93077e-05 
776 3.42838e+06 3.41934e+06 5.41511e-05 
788 2.81649e+06 2.81162e+06 3.33088e-05 
800 6.56851e+06 6.54723e+06 7.60825e-05 
812 3.33013e+06 3.28406e+06 4.33287e-05 
824 3.74257e+06 3.98667e+06 4.82167e-05 
836 3.83942e+06 3.69567e+06 4.39919e-05 
848 5.66613e+06 5.60691e+06 6.31826e-05 
860 1.30231e+06 1.51849e+06 1.64069e-05 
872 2.41326e+06 3.58987e+06 2.03401e-05 
884 4.08004e+06 3.98146e+06 4.01614e-05 
896 1.91448e+06 2.13748e+06 1.5993e-05 
908 2.41483e+06 2.45898e+06 1.98781e-05 
920 3.67806e+06 3.79166e+06 2.4123e-05 
932 5.05215e+06 5.20974e+06 2.53285e-05 
944 2.22545e+06 2.21479e+06 7.79096e-06 
956 5.08441e+06 5.36214e+06 1.69976e-05 
968 1.34104e+07 1.36002e+07 2.96848e-05 
980 3.51268e+06 4.03714e+06 4.96933e-06 
992 0 0 0 
9 0 0 0 
21 0 0 0 
33 0 0 0 
45 0 0 0 
57 0 0 0 
69 0 0 0 
81 0 0 0 
93 0 0 0 
105 0 0 0 
117 0 0 0 
129 0 0 0 
141 0 0 0 
153 0 0 0 
165 0 0 0 
177 0 0 0 
189 0 0 0 
201 0 0 0 
213 0 0 0 
225 0 0 0 
237 0 0 0 
249 0 0 0 
261 0 0 0 
273 0 0 0 
285 0 0 0 
297 0 0 0 
309 0 0 0 
321 0 0 0 
333 0 0 0 
345 0 0 0 
357 0 0 0 
369 0 0 0 
381 0 0 0 
393 0 0 0 
405 0 0 0 
417 0 0 0 
429 0 0 0 
441 0 0 0 
453 0 0 0 
465 0 0 0 
477 0 0 0 
489 0 0 0 
501 0 0 0 
513 154456 139251 3.87516e-06 
525 0 0 0 
537 0 0 0 
549 1.18925e+06 1.16537e+06 2.43805e-05 
561 0 0 0 
573 3.00369e+06 3.07702e+06 5.81161e-05 
585 0 0 0 
597 1.34666e+06 1.32788e+06 2.1519e-05 
609 1.52982e+06 1.52621e+06 2.53099e-05 
621 822882 921220 1.59852e-05 
633 0 0 0 
645 0 0 0 
657 1.74768e+06 1.68061e+06 2.86699e-05 
669 1.48136e+06 1.40414e+06 3.3239e-05 
681 2.78656e+06 2.79445e+06 4.30425e-05 
693 1.56632e+06 1.57829e+06 3.32804e-05 
705 3.03714e+06 2.99351e+06 5.13592e-05 
717 2.52807e+06 2.55976e+06 4.55323e-05 
729 1.48119e+06 1.48122e+06 1.94336e-05 
741 3.84208e+06 3.78308e+06 5.78124e-05 
753 3.51264e+06 3.70928e+06 5.82008e-05 
765 1.18848e+06 1.18743e+06 1.87361e-05 
777 1.17953e+06 1.15602e+06 2.16172e-05 
789 1.72983e+06 1.691e+06 2.72399e-05 
801 3.7786e+06 3.73374e+06 4.41633e-05 
813 7.15164e+06 7.12005e+06 8.92079e-05 
825 2.57911e+06 2.48966e+06 2.26423e-05 
837 2.72182e+06 3.23485e+06 3.08961e-05 
849 4.15201e+06 4.21952e+06 3.63078e-05 
861 6.63974e+06 7.05519e+06 6.59697e-05 
873 4.1211e+06 4.32587e+06 3.45423e-05 
885 1.31076e+06 1.51354e+06 1.26259e-05 
897 4.41262e+06 4.38857e+06 3.4429e-05 
909 6.72003e+06 6.71943e+06 3.78562e-05 
921 3.2781e+06 3.24293e+06 1.65942e-05 
933 1.07654e+06 1.27486e+06 9.28585e-06 
945 7.12401e+06 7.03018e+06 2.7137e-05 
957 1.32026e+06 1.3207e+06 3.58934e-06 
969 139382 121427 1.37672e-06 
981 6.22086e+06 6.19597e+06 8.01826e-06 
993 4.54786e+06 4.54448e+06 2.52548e-06 
10 0 0 0 
22 0 0 0 
34 0 0 0 
46 0 0 0 
58 0 0 0 
70 0 0 0 
82 0 0 0 
94 0 0 0 
106 0 0 0 
118 0 0 0 
130 0 0 0 
142 0 0 0 
154 0 0 0 
166 0 0 0 
178 0 0 0 
190 0 0 0 
202 0 0 0 
214 0 0 0 
226 0 0 0 
238 0 0 0 
250 0 0 0 
262 0 0 0 
274 0 0 0 
286 0 0 0 
298 0 0 0 
310 0 0 0 
322 0 0 0 
334 0 0 0 
346 0 0 0 
358 0 0 0 
370 0 0 0 
382 0 0 0 
394 0 0 0 
406 0 0 0 
418 0 0 0 
430 0 0 0 
442 0 0 0 
454 0 0 0 
466 0 0 0 
478 0 0 0 
490 532685 561295 1.57948e-05 
502 0 0 0 
514 0 0 0 
526 0 0 0 
538 684482 710997 1.40157e-05 
550 977097 973348 2.61426e-05 
562 1.37838e+06 1.37072e+06 2.66356e-05 
574 0 0 0 
586 723098 753214 1.53002e-05 
598 1.17091e+06 1.16847e+06 2.01323e-05 
610 647074 1.19605e+06 2.53482e-05 
622 1.17632e+06 1.12551e+06 2.37843e-05 
634 0 0 0 
646 1.30934e+06 1.31222e+06 2.49912e-05 
658 1.40269e+06 1.3968e+06 3.19902e-05 
670 2.67074e+06 2.66814e+06 5.05944e-05 
682 97039.8 57213.9 1.46774e-06 
694 0 0 0 
706 3.18839e+06 3.19971e+06 5.46596e-05 
718 4.85252e+06 4.82873e+06 7.63611e-05 
730 4.12659e+06 4.07727e+06 6.19482e-05 
742 3.64539e+06 3.96558e+06 6.68409e-05 
754 6.16733e+06 6.0847e+06 8.76727e-05 
766 1.47152e+06 1.54394e+06 2.07072e-05 
778 2.83969e+06 2.85442e+06 4.06903e-05 
790 4.18622e+06 4.35472e+06 5.15179e-05 
802 2.40162e+06 2.38929e+06 2.73862e-05 
814 3.13713e+06 3.23915e+06 3.56796e-05 
826 650213 731061 1.81304e-05 
838 4.5892e+06 4.54411e+06 4.71801e-05 
850 1.3949e+06 1.35857e+06 1.15523e-05 
862 6.23965e+06 6.53911e+06 5.50022e-05 
874 4.67488e+06 4.62524e+06 3.61408e-05 
886 5.48916e+06 5.48082e+06 4.24542e-05 
898 1.4225e+06 1.4645e+06 9.58446e-06 
910 5.23242e+06 5.80929e+06 3.51089e-05 
922 2.70097e+06 2.9032e+06 2.03298e-05 
934 7.54018e+06 7.48439e+06 3.38479e-05 
946 7.73255e+06 7.67054e+06 2.73718e-05 
958 3.77411e+06 3.74844e+06 1.08815e-05 
970 4.41332e+06 4.36495e+06 9.48904e-06 
982 3.83583e+06 4.04179e+06 5.35343e-06 
994 5.26861e+06 5.17705e+06 2.31845e-06 
11 0 0 0 
23 0 0 0 
35 0 0 0 
47 0 0 0 
59 0 0 0 
71 0 0 0 
83 0 0 0 
95 0 0 0 
107 0 0 0 
119 0 0 0 
131 0 0 0 
143 0 0 0 
155 0 0 0 
167 0 0 0 
179 0 0 0 
191 0 0 0 
203 0 0 0 
215 0 0 0 
227 0 0 0 
239 0 0 0 
251 0 0 0 
263 0 0 0 
275 0 0 0 
287 0 0 0 
299 0 0 0 
311 0 0 0 
323 0 0 0 
335 0 0 0 
347 0 0 0 
359 0 0 0 
371 0 0 0 
383 0 0 0 
395 0 0 0 
407 0 0 0 
419 0 0 0 
431 780866 741959 2.43318e-05 
443 0 0 0 
455 0 0 0 
467 0 0 0 
479 0 0 0 
491 0 0 0 
503 0 0 0 
515 0 0 0 
527 235460 238689 4.80653e-06 
539 0 0 0 
551 1.02569e+06 977978 2.72446e-05 
563 1.18791e+06 1.16802e+06 2.50138e-05 
575 1.14576e+06 1.14183e+06 2.33292e-05 
587 3.22324e+06 3.19685e+06 6.59845e-05 
599 0 0 0 
611 551485 557560 9.74828e-06 
623 0 0 0 
635 3.84321e+06 4.46414e+06 7.0529e-05 
647 0 0 0 
659 755177 748153 1.73695e-05 
671 0 0 0 
683 66244.5 63501.2 2.72985e-06 
695 573910 570908 9.95928e-06 
707 3.84868e+06 4.13115e+06 7.13567e-05 
719 1.15065e+06 1.12992e+06 2.20644e-05 
731 1.16177e+06 1.15034e+06 1.73993e-05 
743 3.01012e+06 2.84707e+06 4.39287e-05 
755 7.24858e+06 7.23794e+06 0.00010771 
767 1.9892e+06 1.95565e+06 3.12395e-05 
779 4.19956e+06 4.49054e+06 6.33194e-05 
791 2.77736e+06 2.76183e+06 3.54305e-05 
803 1.01754e+06 1.01934e+06 1.13217e-05 
815 3.46838e+06 3.41551e+06 3.99784e-05 
827 3.59033e+06 3.74249e+06 4.62738e-05 
839 5.71569e+06 5.74299e+06 5.74819e-05 
851 2.45561e+06 2.48456e+06 2.54132e-05 
863 5.08721e+06 5.05339e+06 5.08266e-05 
875 4.98756e+06 4.97795e+06 3.93663e-05 
887 2.88963e+06 3.01424e+06 2.98887e-05 
899 2.36649e+06 2.38397e+06 1.6463e-05 
911 5.48898e+06 5.40242e+06 3.12063e-05 
923 5.34682e+06 5.56728e+06 2.66331e-05 
935 1.56835e+06 1.51685e+06 9.32699e-06 
947 680243 680175 3.3814e-06 
959 7.91098e+06 7.89194e+06 1.99115e-05 
971 1.40589e+06 1.54012e+06 3.04064e-06 
983 952682 934005 1.53069e-06 
995 808292 832232 2.81115e-07 
12 0 0 0 
24 0 0 0 
36 0 0 0 
48 0 0 0 
60 0 0 0 
72 0 0 0 
84 0 0 0 
96 0 0 0 
108 0 0 0 
120 0 0 0 
132 0 0 0 
144 0 0 0 
156 0 0 0 
168 0 0 0 
180 0 0 0 
192 0 0 0 
204 0 0 0 
216 0 0 0 
228 0 0 0 
240 0 0 0 
252 0 0 0 
264 0 0 0 
276 0 0 0 
288 0 0 0 
300 0 0 0 
312 0 0 0 
324 0 0 0 
336 0 0 0 
348 0 0 0 
360 0 0 0 
372 0 0 0 
384 0 0 0 
396 0 0 0 
408 0 0 0 
420 0 0 0 
432 0 0 0 
444 0 0 0 
456 0 0 0 
468 0 0 0 
480 0 0 0 
492 0 0 0 
504 0 0 0 
516 0 0 0 
528 2.24034e+06 2.21317e+06 4.7843e-05 
540 0 0 0 
552 0 0 0 
564 0 0 0 
576 2.53534e+06 2.54515e+06 5.32648e-05 
588 1.26543e+06 1.26712e+06 2.41353e-05 
600 1.37845e+06 1.38258e+06 2.71111e-05 
612 1.19926e+06 1.18747e+06 2.77212e-05 
624 1.36193e+06 1.35472e+06 2.75641e-05 
636 112796 121375 4.40151e-06 
648 1.32557e+06 1.31567e+06 2.42592e-05 
660 553811 550360 1.20709e-05 
672 593429 708845 1.06398e-05 
684 4.73707e+06 5.1637e+06 8.42695e-05 
696 1.48843e+06 1.48383e+06 2.53332e-05 
708 1.34053e+06 1.31109e+06 1.78755e-05 
720 2.16748e+06 2.29568e+06 3.61731e-05 
732 1.30491e+06 1.29344e+06 1.87907e-05 
744 1.09423e+06 1.06063e+06 1.91204e-05 
756 6.06653e+06 6.52582e+06 9.42071e-05 
768 20697.5 25007.6 2.15197e-06 
780 3.96466e+06 4.69958e+06 6.01083e-05 
792 3.34532e+06 3.36623e+06 4.55552e-05 
804 2.92717e+06 2.86653e+06 3.94437e-05 
816 3.40216e+06 3.38061e+06 4.43202e-05 
828 4.21981e+06 4.16892e+06 4.59749e-05 
840 7.82095e+06 7.76414e+06 8.54902e-05 
852 4.372e+06 4.56883e+06 4.1968e-05 
864 445439 504398 4.89588e-06 
876 4.03532e+06 4.00951e+06 3.16038e-05 
888 259957 380442 4.45126e-06 
900 7.76654e+06 7.74473e+06 5.30544e-05 
912 4.84529e+06 4.77879e+06 2.73427e-05 
924 1.68702e+06 2.11805e+06 1.20081e-05 
936 6.28231e+06 6.22911e+06 2.75451e-05 
948 7.06962e+06 7.02242e+06 2.47543e-05 
960 1.07e+07 1.09088e+07 2.71015e-05 
972 2.69505e+06 2.63875e+06 5.55523e-06 
984 3.28956e+06 3.25209e+06 4.07965e-06 
996 2.55034e+06 2.53731e+06 8.46598e-07 
